n -t 0 -s 0 -S DLABEL -l "agent TCP" -L ""
n -t 0 -s 4 -S DLABEL -l "agent TCPSink" -L ""
m -t 0 -s 0 -n agent OSPF -c black -h circle
m -t 0 -s 1 -n agent OSPF -c black -h circle
m -t 0 -s 2 -n agent OSPF -c black -h circle
m -t 0 -s 3 -n agent OSPF -c black -h circle
m -t 0 -s 4 -n agent OSPF -c black -h circle
m -t 0 -s 5 -n agent OSPF -c black -h circle
V -t * -v 1.0a5 -a 0
A -t * -n 1 -p 0 -o 0x7fffffff -c 30 -a 1
A -t * -h 1 -m 1073741823 -s 0
c -t * -i 992 -n red
c -t * -i 993 -n green
c -t * -i 1 -n magenta
c -t * -i 994 -n violet
c -t * -i 995 -n yellow
c -t * -i 991 -n blue
n -t * -a 4 -s 4 -S UP -v circle -c black -i black
n -t * -a 0 -s 0 -S UP -v circle -c black -i black
n -t * -a 5 -s 5 -S UP -v circle -c black -i black
n -t * -a 1 -s 1 -S UP -v circle -c black -i black
n -t * -a 2 -s 2 -S UP -v circle -c black -i black
n -t * -a 3 -s 3 -S UP -v circle -c black -i black
l -t * -s 0 -d 2 -S UP -r 2000000 -D 0.002 -c black
l -t * -s 1 -d 2 -S UP -r 2000000 -D 0.002 -c black
l -t * -s 2 -d 3 -S UP -r 1500000 -D 0.01 -c black
l -t * -s 3 -d 4 -S UP -r 1500000 -D 0.01 -c black
l -t * -s 2 -d 5 -S UP -r 1500000 -D 0.01 -c black
l -t * -s 5 -d 4 -S UP -r 1500000 -D 0.01 -c black
q -t * -s 2 -d 5 -a 0
q -t * -s 5 -d 2 -a 0
q -t * -s 4 -d 5 -a 0
q -t * -s 5 -d 4 -a 0
q -t * -s 2 -d 3 -a 0
q -t * -s 3 -d 2 -a 0
v -t 0.000169788487334637 -e sim_annotation 0.000169788487334637 1 Agente OSPF 0.Enviando un HELLO a 2 msgid 1
+ -t 0.000169788487334637 -s 0 -d 2 -p rtProtoOSPF -e 124 -c 991 -i 0 -a 991 -x {0.2 2.1 -1 ------- null}
- -t 0.000169788487334637 -s 0 -d 2 -p rtProtoOSPF -e 124 -c 991 -i 0 -a 991 -x {0.2 2.1 -1 ------- null}
h -t 0.000169788487334637 -s 0 -d 2 -p rtProtoOSPF -e 124 -c 991 -i 0 -a 991 -x {0.2 2.1 -1 ------- null}
r -t 0.00266578848733464 -s 0 -d 2 -p rtProtoOSPF -e 124 -c 991 -i 0 -a 991 -x {0.2 2.1 -1 ------- null}
v -t 0.00266578848733464 -e sim_annotation 0.00266578848733464 2 Agente OSPF 2.Reciviendo un HELLO de 0 msgid 1
v -t 0.00710233021858257 -e sim_annotation 0.00710233021858257 3 Agente OSPF 2.Enviando un HELLO a 0 msgid 2
+ -t 0.00710233021858257 -s 2 -d 0 -p rtProtoOSPF -e 124 -c 991 -i 1 -a 991 -x {2.1 0.2 -1 ------- null}
- -t 0.00710233021858257 -s 2 -d 0 -p rtProtoOSPF -e 124 -c 991 -i 1 -a 991 -x {2.1 0.2 -1 ------- null}
h -t 0.00710233021858257 -s 2 -d 0 -p rtProtoOSPF -e 124 -c 991 -i 1 -a 991 -x {2.1 0.2 -1 ------- null}
v -t 0.00710233021858257 -e sim_annotation 0.00710233021858257 4 Agente OSPF 2.Enviando un HELLO a 1 msgid 2
+ -t 0.00710233021858257 -s 2 -d 1 -p rtProtoOSPF -e 124 -c 991 -i 2 -a 991 -x {2.1 1.1 -1 ------- null}
- -t 0.00710233021858257 -s 2 -d 1 -p rtProtoOSPF -e 124 -c 991 -i 2 -a 991 -x {2.1 1.1 -1 ------- null}
h -t 0.00710233021858257 -s 2 -d 1 -p rtProtoOSPF -e 124 -c 991 -i 2 -a 991 -x {2.1 1.1 -1 ------- null}
v -t 0.00710233021858257 -e sim_annotation 0.00710233021858257 5 Agente OSPF 2.Enviando un HELLO a 3 msgid 2
+ -t 0.00710233021858257 -s 2 -d 3 -p rtProtoOSPF -e 124 -c 991 -i 3 -a 991 -x {2.1 3.1 -1 ------- null}
- -t 0.00710233021858257 -s 2 -d 3 -p rtProtoOSPF -e 124 -c 991 -i 3 -a 991 -x {2.1 3.1 -1 ------- null}
h -t 0.00710233021858257 -s 2 -d 3 -p rtProtoOSPF -e 124 -c 991 -i 3 -a 991 -x {2.1 3.1 -1 ------- null}
v -t 0.00710233021858257 -e sim_annotation 0.00710233021858257 6 Agente OSPF 2.Enviando un HELLO a 5 msgid 2
+ -t 0.00710233021858257 -s 2 -d 5 -p rtProtoOSPF -e 124 -c 991 -i 4 -a 991 -x {2.1 5.1 -1 ------- null}
- -t 0.00710233021858257 -s 2 -d 5 -p rtProtoOSPF -e 124 -c 991 -i 4 -a 991 -x {2.1 5.1 -1 ------- null}
h -t 0.00710233021858257 -s 2 -d 5 -p rtProtoOSPF -e 124 -c 991 -i 4 -a 991 -x {2.1 5.1 -1 ------- null}
r -t 0.00959833021858257 -s 2 -d 0 -p rtProtoOSPF -e 124 -c 991 -i 1 -a 991 -x {2.1 0.2 -1 ------- null}
v -t 0.00959833021858257 -e sim_annotation 0.00959833021858257 7 Agente OSPF 0.Reciviendo un HELLO de 2 msgid 2
v -t 0.00959833021858257 -e sim_annotation 0.00959833021858257 8 Agente OSPF 0.Enviando un DD a 2 msgid 1
+ -t 0.00959833021858257 -s 0 -d 2 -p rtProtoOSPF -e 224 -c 992 -i 5 -a 992 -x {0.2 2.1 -1 ------- null}
- -t 0.00959833021858257 -s 0 -d 2 -p rtProtoOSPF -e 224 -c 992 -i 5 -a 992 -x {0.2 2.1 -1 ------- null}
h -t 0.00959833021858257 -s 0 -d 2 -p rtProtoOSPF -e 224 -c 992 -i 5 -a 992 -x {0.2 2.1 -1 ------- null}
r -t 0.00959833021858257 -s 2 -d 1 -p rtProtoOSPF -e 124 -c 991 -i 2 -a 991 -x {2.1 1.1 -1 ------- null}
v -t 0.00959833021858257 -e sim_annotation 0.00959833021858257 9 Agente OSPF 1.Reciviendo un HELLO de 2 msgid 2
r -t 0.0124943302185826 -s 0 -d 2 -p rtProtoOSPF -e 224 -c 992 -i 5 -a 992 -x {0.2 2.1 -1 ------- null}
v -t 0.0124943302185826 -e sim_annotation 0.0124943302185826 10 Agente OSPF 2.Reciviendo un DD de 0 msgid 1
v -t 0.0124943302185826 -e sim_annotation 0.0124943302185826 11 Agente OSPF 2.Enviando un DD a 0 msgid 2
+ -t 0.0124943302185826 -s 2 -d 0 -p rtProtoOSPF -e 224 -c 992 -i 6 -a 992 -x {2.1 0.2 -1 ------- null}
- -t 0.0124943302185826 -s 2 -d 0 -p rtProtoOSPF -e 224 -c 992 -i 6 -a 992 -x {2.1 0.2 -1 ------- null}
h -t 0.0124943302185826 -s 2 -d 0 -p rtProtoOSPF -e 224 -c 992 -i 6 -a 992 -x {2.1 0.2 -1 ------- null}
r -t 0.0153903302185826 -s 2 -d 0 -p rtProtoOSPF -e 224 -c 992 -i 6 -a 992 -x {2.1 0.2 -1 ------- null}
v -t 0.0153903302185826 -e sim_annotation 0.0153903302185826 12 Agente OSPF 0.Reciviendo un DD de 2 msgid 2
v -t 0.0153903302185826 -e sim_annotation 0.0153903302185826 13 Agente OSPF 0.Enviando un DD a 2 msgid 3
+ -t 0.0153903302185826 -s 0 -d 2 -p rtProtoOSPF -e 224 -c 992 -i 7 -a 992 -x {0.2 2.1 -1 ------- null}
- -t 0.0153903302185826 -s 0 -d 2 -p rtProtoOSPF -e 224 -c 992 -i 7 -a 992 -x {0.2 2.1 -1 ------- null}
h -t 0.0153903302185826 -s 0 -d 2 -p rtProtoOSPF -e 224 -c 992 -i 7 -a 992 -x {0.2 2.1 -1 ------- null}
r -t 0.0177636635519159 -s 2 -d 3 -p rtProtoOSPF -e 124 -c 991 -i 3 -a 991 -x {2.1 3.1 -1 ------- null}
v -t 0.0177636635519159 -e sim_annotation 0.0177636635519159 14 Agente OSPF 3.Reciviendo un HELLO de 2 msgid 2
r -t 0.0177636635519159 -s 2 -d 5 -p rtProtoOSPF -e 124 -c 991 -i 4 -a 991 -x {2.1 5.1 -1 ------- null}
v -t 0.0177636635519159 -e sim_annotation 0.0177636635519159 15 Agente OSPF 5.Reciviendo un HELLO de 2 msgid 2
r -t 0.0182863302185826 -s 0 -d 2 -p rtProtoOSPF -e 224 -c 992 -i 7 -a 992 -x {0.2 2.1 -1 ------- null}
v -t 0.0182863302185826 -e sim_annotation 0.0182863302185826 16 Agente OSPF 2.Reciviendo un DD de 0 msgid 3
v -t 0.0182863302185826 -e sim_annotation 0.0182863302185826 17 Agente OSPF 2.Enviando un DD a 0 msgid 4
+ -t 0.0182863302185826 -s 2 -d 0 -p rtProtoOSPF -e 224 -c 992 -i 8 -a 992 -x {2.1 0.2 -1 ------- null}
- -t 0.0182863302185826 -s 2 -d 0 -p rtProtoOSPF -e 224 -c 992 -i 8 -a 992 -x {2.1 0.2 -1 ------- null}
h -t 0.0182863302185826 -s 2 -d 0 -p rtProtoOSPF -e 224 -c 992 -i 8 -a 992 -x {2.1 0.2 -1 ------- null}
r -t 0.0211823302185826 -s 2 -d 0 -p rtProtoOSPF -e 224 -c 992 -i 8 -a 992 -x {2.1 0.2 -1 ------- null}
v -t 0.0211823302185826 -e sim_annotation 0.0211823302185826 18 Agente OSPF 0.Reciviendo un DD de 2 msgid 4
v -t 0.0211823302185826 -e sim_annotation 0.0211823302185826 19 Agente OSPF 0.Enviando un DD a 2 msgid 5
+ -t 0.0211823302185826 -s 0 -d 2 -p rtProtoOSPF -e 224 -c 992 -i 9 -a 992 -x {0.2 2.1 -1 ------- null}
- -t 0.0211823302185826 -s 0 -d 2 -p rtProtoOSPF -e 224 -c 992 -i 9 -a 992 -x {0.2 2.1 -1 ------- null}
h -t 0.0211823302185826 -s 0 -d 2 -p rtProtoOSPF -e 224 -c 992 -i 9 -a 992 -x {0.2 2.1 -1 ------- null}
v -t 0.0211823302185826 -e sim_annotation 0.0211823302185826 20 Agente OSPF 0.Enviando un REQUEST a 2 msgid 1
+ -t 0.0211823302185826 -s 0 -d 2 -p rtProtoOSPF -e 124 -c 994 -i 10 -a 994 -x {0.2 2.1 -1 ------- null}
- -t 0.0220783302185826 -s 0 -d 2 -p rtProtoOSPF -e 124 -c 994 -i 10 -a 994 -x {0.2 2.1 -1 ------- null}
h -t 0.0220783302185826 -s 0 -d 2 -p rtProtoOSPF -e 124 -c 994 -i 10 -a 994 -x {0.2 2.1 -1 ------- null}
r -t 0.0240783302185826 -s 0 -d 2 -p rtProtoOSPF -e 224 -c 992 -i 9 -a 992 -x {0.2 2.1 -1 ------- null}
v -t 0.0240783302185826 -e sim_annotation 0.0240783302185826 21 Agente OSPF 2.Reciviendo un DD de 0 msgid 5
v -t 0.0240783302185826 -e sim_annotation 0.0240783302185826 22 Agente OSPF 2.Enviando un REQUEST a 0 msgid 2
+ -t 0.0240783302185826 -s 2 -d 0 -p rtProtoOSPF -e 124 -c 994 -i 11 -a 994 -x {2.1 0.2 -1 ------- null}
- -t 0.0240783302185826 -s 2 -d 0 -p rtProtoOSPF -e 124 -c 994 -i 11 -a 994 -x {2.1 0.2 -1 ------- null}
h -t 0.0240783302185826 -s 2 -d 0 -p rtProtoOSPF -e 124 -c 994 -i 11 -a 994 -x {2.1 0.2 -1 ------- null}
r -t 0.0245743302185826 -s 0 -d 2 -p rtProtoOSPF -e 124 -c 994 -i 10 -a 994 -x {0.2 2.1 -1 ------- null}
v -t 0.0245743302185826 -e sim_annotation 0.0245743302185826 23 Agente OSPF 2.Reciviendo un REQUEST de 0 msgid 1
v -t 0.0245743302185826 -e sim_annotation 0.0245743302185826 24 Agente OSPF 2.Enviando un UPDATE a 0 msgid 1
+ -t 0.0245743302185826 -s 2 -d 0 -p rtProtoOSPF -e 124 -c 993 -i 12 -a 993 -x {2.1 0.2 -1 ------- null}
- -t 0.0245743302185826 -s 2 -d 0 -p rtProtoOSPF -e 124 -c 993 -i 12 -a 993 -x {2.1 0.2 -1 ------- null}
h -t 0.0245743302185826 -s 2 -d 0 -p rtProtoOSPF -e 124 -c 993 -i 12 -a 993 -x {2.1 0.2 -1 ------- null}
r -t 0.0265743302185826 -s 2 -d 0 -p rtProtoOSPF -e 124 -c 994 -i 11 -a 994 -x {2.1 0.2 -1 ------- null}
v -t 0.0265743302185826 -e sim_annotation 0.0265743302185826 25 Agente OSPF 0.Reciviendo un REQUEST de 2 msgid 2
v -t 0.0265743302185826 -e sim_annotation 0.0265743302185826 26 Agente OSPF 0.Enviando un UPDATE a 2 msgid 2
+ -t 0.0265743302185826 -s 0 -d 2 -p rtProtoOSPF -e 124 -c 993 -i 13 -a 993 -x {0.2 2.1 -1 ------- null}
- -t 0.0265743302185826 -s 0 -d 2 -p rtProtoOSPF -e 124 -c 993 -i 13 -a 993 -x {0.2 2.1 -1 ------- null}
h -t 0.0265743302185826 -s 0 -d 2 -p rtProtoOSPF -e 124 -c 993 -i 13 -a 993 -x {0.2 2.1 -1 ------- null}
r -t 0.0270703302185826 -s 2 -d 0 -p rtProtoOSPF -e 124 -c 993 -i 12 -a 993 -x {2.1 0.2 -1 ------- null}
v -t 0.0270703302185826 -e sim_annotation 0.0270703302185826 27 Agente OSPF 0.Reciviendo un UPDATE de 2 msgid 1
v -t 0.0270703302185826 -e sim_annotation 0.0270703302185826 28 Agente OSPF 0.Enviando un ACK a 2 msgid 1
+ -t 0.0270703302185826 -s 0 -d 2 -p rtProtoOSPF -e 44 -c 995 -i 14 -a 995 -x {0.2 2.1 -1 ------- null}
- -t 0.0270703302185826 -s 0 -d 2 -p rtProtoOSPF -e 44 -c 995 -i 14 -a 995 -x {0.2 2.1 -1 ------- null}
h -t 0.0270703302185826 -s 0 -d 2 -p rtProtoOSPF -e 44 -c 995 -i 14 -a 995 -x {0.2 2.1 -1 ------- null}
r -t 0.0290703302185826 -s 0 -d 2 -p rtProtoOSPF -e 124 -c 993 -i 13 -a 993 -x {0.2 2.1 -1 ------- null}
v -t 0.0290703302185826 -e sim_annotation 0.0290703302185826 29 Agente OSPF 2.Reciviendo un UPDATE de 0 msgid 2
v -t 0.0290703302185826 -e sim_annotation 0.0290703302185826 30 Agente OSPF 2.Enviando un ACK a 0 msgid 2
+ -t 0.0290703302185826 -s 2 -d 0 -p rtProtoOSPF -e 44 -c 995 -i 15 -a 995 -x {2.1 0.2 -1 ------- null}
- -t 0.0290703302185826 -s 2 -d 0 -p rtProtoOSPF -e 44 -c 995 -i 15 -a 995 -x {2.1 0.2 -1 ------- null}
h -t 0.0290703302185826 -s 2 -d 0 -p rtProtoOSPF -e 44 -c 995 -i 15 -a 995 -x {2.1 0.2 -1 ------- null}
r -t 0.0292463302185826 -s 0 -d 2 -p rtProtoOSPF -e 44 -c 995 -i 14 -a 995 -x {0.2 2.1 -1 ------- null}
v -t 0.0292463302185826 -e sim_annotation 0.0292463302185826 31 Agente OSPF 2.Reciviendo un ACK de 0 msgid 1
r -t 0.0312463302185826 -s 2 -d 0 -p rtProtoOSPF -e 44 -c 995 -i 15 -a 995 -x {2.1 0.2 -1 ------- null}
v -t 0.0312463302185826 -e sim_annotation 0.0312463302185826 32 Agente OSPF 0.Reciviendo un ACK de 2 msgid 2
v -t 0.04406133552271 -e sim_annotation 0.04406133552271 33 Agente OSPF 3.Enviando un HELLO a 2 msgid 3
+ -t 0.04406133552271 -s 3 -d 2 -p rtProtoOSPF -e 124 -c 991 -i 16 -a 991 -x {3.1 2.1 -1 ------- null}
- -t 0.04406133552271 -s 3 -d 2 -p rtProtoOSPF -e 124 -c 991 -i 16 -a 991 -x {3.1 2.1 -1 ------- null}
h -t 0.04406133552271 -s 3 -d 2 -p rtProtoOSPF -e 124 -c 991 -i 16 -a 991 -x {3.1 2.1 -1 ------- null}
v -t 0.04406133552271 -e sim_annotation 0.04406133552271 34 Agente OSPF 3.Enviando un HELLO a 4 msgid 3
+ -t 0.04406133552271 -s 3 -d 4 -p rtProtoOSPF -e 124 -c 991 -i 17 -a 991 -x {3.1 4.2 -1 ------- null}
- -t 0.04406133552271 -s 3 -d 4 -p rtProtoOSPF -e 124 -c 991 -i 17 -a 991 -x {3.1 4.2 -1 ------- null}
h -t 0.04406133552271 -s 3 -d 4 -p rtProtoOSPF -e 124 -c 991 -i 17 -a 991 -x {3.1 4.2 -1 ------- null}
r -t 0.0547226688560434 -s 3 -d 2 -p rtProtoOSPF -e 124 -c 991 -i 16 -a 991 -x {3.1 2.1 -1 ------- null}
v -t 0.0547226688560434 -e sim_annotation 0.0547226688560434 35 Agente OSPF 2.Reciviendo un HELLO de 3 msgid 3
v -t 0.0547226688560434 -e sim_annotation 0.0547226688560434 36 Agente OSPF 2.Enviando un DD a 3 msgid 6
+ -t 0.0547226688560434 -s 2 -d 3 -p rtProtoOSPF -e 224 -c 992 -i 18 -a 992 -x {2.1 3.1 -1 ------- null}
- -t 0.0547226688560434 -s 2 -d 3 -p rtProtoOSPF -e 224 -c 992 -i 18 -a 992 -x {2.1 3.1 -1 ------- null}
h -t 0.0547226688560434 -s 2 -d 3 -p rtProtoOSPF -e 224 -c 992 -i 18 -a 992 -x {2.1 3.1 -1 ------- null}
r -t 0.0547226688560434 -s 3 -d 4 -p rtProtoOSPF -e 124 -c 991 -i 17 -a 991 -x {3.1 4.2 -1 ------- null}
v -t 0.0547226688560434 -e sim_annotation 0.0547226688560434 37 Agente OSPF 4.Reciviendo un HELLO de 3 msgid 3
r -t 0.06591733552271 -s 2 -d 3 -p rtProtoOSPF -e 224 -c 992 -i 18 -a 992 -x {2.1 3.1 -1 ------- null}
v -t 0.06591733552271 -e sim_annotation 0.06591733552271 38 Agente OSPF 3.Reciviendo un DD de 2 msgid 6
v -t 0.06591733552271 -e sim_annotation 0.06591733552271 39 Agente OSPF 3.Enviando un DD a 2 msgid 7
+ -t 0.06591733552271 -s 3 -d 2 -p rtProtoOSPF -e 224 -c 992 -i 19 -a 992 -x {3.1 2.1 -1 ------- null}
- -t 0.06591733552271 -s 3 -d 2 -p rtProtoOSPF -e 224 -c 992 -i 19 -a 992 -x {3.1 2.1 -1 ------- null}
h -t 0.06591733552271 -s 3 -d 2 -p rtProtoOSPF -e 224 -c 992 -i 19 -a 992 -x {3.1 2.1 -1 ------- null}
r -t 0.0771120021893767 -s 3 -d 2 -p rtProtoOSPF -e 224 -c 992 -i 19 -a 992 -x {3.1 2.1 -1 ------- null}
v -t 0.0771120021893767 -e sim_annotation 0.0771120021893767 40 Agente OSPF 2.Reciviendo un DD de 3 msgid 7
v -t 0.0771120021893767 -e sim_annotation 0.0771120021893767 41 Agente OSPF 2.Enviando un DD a 3 msgid 8
+ -t 0.0771120021893767 -s 2 -d 3 -p rtProtoOSPF -e 224 -c 992 -i 20 -a 992 -x {2.1 3.1 -1 ------- null}
- -t 0.0771120021893767 -s 2 -d 3 -p rtProtoOSPF -e 224 -c 992 -i 20 -a 992 -x {2.1 3.1 -1 ------- null}
h -t 0.0771120021893767 -s 2 -d 3 -p rtProtoOSPF -e 224 -c 992 -i 20 -a 992 -x {2.1 3.1 -1 ------- null}
r -t 0.0883066688560434 -s 2 -d 3 -p rtProtoOSPF -e 224 -c 992 -i 20 -a 992 -x {2.1 3.1 -1 ------- null}
v -t 0.0883066688560434 -e sim_annotation 0.0883066688560434 42 Agente OSPF 3.Reciviendo un DD de 2 msgid 8
v -t 0.0883066688560434 -e sim_annotation 0.0883066688560434 43 Agente OSPF 3.Enviando un DD a 2 msgid 9
+ -t 0.0883066688560434 -s 3 -d 2 -p rtProtoOSPF -e 224 -c 992 -i 21 -a 992 -x {3.1 2.1 -1 ------- null}
- -t 0.0883066688560434 -s 3 -d 2 -p rtProtoOSPF -e 224 -c 992 -i 21 -a 992 -x {3.1 2.1 -1 ------- null}
h -t 0.0883066688560434 -s 3 -d 2 -p rtProtoOSPF -e 224 -c 992 -i 21 -a 992 -x {3.1 2.1 -1 ------- null}
r -t 0.0995013355227101 -s 3 -d 2 -p rtProtoOSPF -e 224 -c 992 -i 21 -a 992 -x {3.1 2.1 -1 ------- null}
v -t 0.0995013355227101 -e sim_annotation 0.0995013355227101 44 Agente OSPF 2.Reciviendo un DD de 3 msgid 9
v -t 0.0995013355227101 -e sim_annotation 0.0995013355227101 45 Agente OSPF 2.Enviando un DD a 3 msgid 10
+ -t 0.0995013355227101 -s 2 -d 3 -p rtProtoOSPF -e 224 -c 992 -i 22 -a 992 -x {2.1 3.1 -1 ------- null}
- -t 0.0995013355227101 -s 2 -d 3 -p rtProtoOSPF -e 224 -c 992 -i 22 -a 992 -x {2.1 3.1 -1 ------- null}
h -t 0.0995013355227101 -s 2 -d 3 -p rtProtoOSPF -e 224 -c 992 -i 22 -a 992 -x {2.1 3.1 -1 ------- null}
v -t 0.0995013355227101 -e sim_annotation 0.0995013355227101 46 Agente OSPF 2.Enviando un REQUEST a 3 msgid 3
+ -t 0.0995013355227101 -s 2 -d 3 -p rtProtoOSPF -e 124 -c 994 -i 23 -a 994 -x {2.1 3.1 -1 ------- null}
- -t 0.100696002189377 -s 2 -d 3 -p rtProtoOSPF -e 124 -c 994 -i 23 -a 994 -x {2.1 3.1 -1 ------- null}
h -t 0.100696002189377 -s 2 -d 3 -p rtProtoOSPF -e 124 -c 994 -i 23 -a 994 -x {2.1 3.1 -1 ------- null}
r -t 0.110696002189377 -s 2 -d 3 -p rtProtoOSPF -e 224 -c 992 -i 22 -a 992 -x {2.1 3.1 -1 ------- null}
v -t 0.110696002189377 -e sim_annotation 0.110696002189377 47 Agente OSPF 3.Reciviendo un DD de 2 msgid 10
v -t 0.110696002189377 -e sim_annotation 0.110696002189377 48 Agente OSPF 3.Enviando un REQUEST a 2 msgid 4
+ -t 0.110696002189377 -s 3 -d 2 -p rtProtoOSPF -e 124 -c 994 -i 24 -a 994 -x {3.1 2.1 -1 ------- null}
- -t 0.110696002189377 -s 3 -d 2 -p rtProtoOSPF -e 124 -c 994 -i 24 -a 994 -x {3.1 2.1 -1 ------- null}
h -t 0.110696002189377 -s 3 -d 2 -p rtProtoOSPF -e 124 -c 994 -i 24 -a 994 -x {3.1 2.1 -1 ------- null}
r -t 0.11135733552271 -s 2 -d 3 -p rtProtoOSPF -e 124 -c 994 -i 23 -a 994 -x {2.1 3.1 -1 ------- null}
v -t 0.11135733552271 -e sim_annotation 0.11135733552271 49 Agente OSPF 3.Reciviendo un REQUEST de 2 msgid 3
v -t 0.11135733552271 -e sim_annotation 0.11135733552271 50 Agente OSPF 3.Enviando un UPDATE a 2 msgid 3
+ -t 0.11135733552271 -s 3 -d 2 -p rtProtoOSPF -e 124 -c 993 -i 25 -a 993 -x {3.1 2.1 -1 ------- null}
- -t 0.11135733552271 -s 3 -d 2 -p rtProtoOSPF -e 124 -c 993 -i 25 -a 993 -x {3.1 2.1 -1 ------- null}
h -t 0.11135733552271 -s 3 -d 2 -p rtProtoOSPF -e 124 -c 993 -i 25 -a 993 -x {3.1 2.1 -1 ------- null}
r -t 0.12135733552271 -s 3 -d 2 -p rtProtoOSPF -e 124 -c 994 -i 24 -a 994 -x {3.1 2.1 -1 ------- null}
v -t 0.12135733552271 -e sim_annotation 0.12135733552271 51 Agente OSPF 2.Reciviendo un REQUEST de 3 msgid 4
v -t 0.12135733552271 -e sim_annotation 0.12135733552271 52 Agente OSPF 2.Enviando un UPDATE a 3 msgid 4
+ -t 0.12135733552271 -s 2 -d 3 -p rtProtoOSPF -e 124 -c 993 -i 26 -a 993 -x {2.1 3.1 -1 ------- null}
- -t 0.12135733552271 -s 2 -d 3 -p rtProtoOSPF -e 124 -c 993 -i 26 -a 993 -x {2.1 3.1 -1 ------- null}
h -t 0.12135733552271 -s 2 -d 3 -p rtProtoOSPF -e 124 -c 993 -i 26 -a 993 -x {2.1 3.1 -1 ------- null}
r -t 0.122018668856043 -s 3 -d 2 -p rtProtoOSPF -e 124 -c 993 -i 25 -a 993 -x {3.1 2.1 -1 ------- null}
v -t 0.122018668856043 -e sim_annotation 0.122018668856043 53 Agente OSPF 2.Reciviendo un UPDATE de 3 msgid 3
v -t 0.122018668856043 -e sim_annotation 0.122018668856043 54 Agente OSPF 2.Enviando un UPDATE a 0 msgid 5
+ -t 0.122018668856043 -s 2 -d 0 -p rtProtoOSPF -e 124 -c 993 -i 27 -a 993 -x {2.1 0.2 -1 ------- null}
- -t 0.122018668856043 -s 2 -d 0 -p rtProtoOSPF -e 124 -c 993 -i 27 -a 993 -x {2.1 0.2 -1 ------- null}
h -t 0.122018668856043 -s 2 -d 0 -p rtProtoOSPF -e 124 -c 993 -i 27 -a 993 -x {2.1 0.2 -1 ------- null}
v -t 0.122018668856043 -e sim_annotation 0.122018668856043 55 Agente OSPF 2.Enviando un ACK a 3 msgid 3
+ -t 0.122018668856043 -s 2 -d 3 -p rtProtoOSPF -e 44 -c 995 -i 28 -a 995 -x {2.1 3.1 -1 ------- null}
- -t 0.122018668856043 -s 2 -d 3 -p rtProtoOSPF -e 44 -c 995 -i 28 -a 995 -x {2.1 3.1 -1 ------- null}
h -t 0.122018668856043 -s 2 -d 3 -p rtProtoOSPF -e 44 -c 995 -i 28 -a 995 -x {2.1 3.1 -1 ------- null}
r -t 0.124514668856043 -s 2 -d 0 -p rtProtoOSPF -e 124 -c 993 -i 27 -a 993 -x {2.1 0.2 -1 ------- null}
v -t 0.124514668856043 -e sim_annotation 0.124514668856043 56 Agente OSPF 0.Reciviendo un UPDATE de 2 msgid 5
v -t 0.124514668856043 -e sim_annotation 0.124514668856043 57 Agente OSPF 0.Enviando un ACK a 2 msgid 4
+ -t 0.124514668856043 -s 0 -d 2 -p rtProtoOSPF -e 44 -c 995 -i 29 -a 995 -x {0.2 2.1 -1 ------- null}
- -t 0.124514668856043 -s 0 -d 2 -p rtProtoOSPF -e 44 -c 995 -i 29 -a 995 -x {0.2 2.1 -1 ------- null}
h -t 0.124514668856043 -s 0 -d 2 -p rtProtoOSPF -e 44 -c 995 -i 29 -a 995 -x {0.2 2.1 -1 ------- null}
r -t 0.126690668856043 -s 0 -d 2 -p rtProtoOSPF -e 44 -c 995 -i 29 -a 995 -x {0.2 2.1 -1 ------- null}
v -t 0.126690668856043 -e sim_annotation 0.126690668856043 58 Agente OSPF 2.Reciviendo un ACK de 0 msgid 4
r -t 0.132018668856043 -s 2 -d 3 -p rtProtoOSPF -e 124 -c 993 -i 26 -a 993 -x {2.1 3.1 -1 ------- null}
v -t 0.132018668856043 -e sim_annotation 0.132018668856043 59 Agente OSPF 3.Reciviendo un UPDATE de 2 msgid 4
v -t 0.132018668856043 -e sim_annotation 0.132018668856043 60 Agente OSPF 3.Enviando un ACK a 2 msgid 5
+ -t 0.132018668856043 -s 3 -d 2 -p rtProtoOSPF -e 44 -c 995 -i 30 -a 995 -x {3.1 2.1 -1 ------- null}
- -t 0.132018668856043 -s 3 -d 2 -p rtProtoOSPF -e 44 -c 995 -i 30 -a 995 -x {3.1 2.1 -1 ------- null}
h -t 0.132018668856043 -s 3 -d 2 -p rtProtoOSPF -e 44 -c 995 -i 30 -a 995 -x {3.1 2.1 -1 ------- null}
v -t 0.132018668856043 -e sim_annotation 0.132018668856043 61 Agente OSPF 3.Enviando un ACK a 2 msgid 6
+ -t 0.132018668856043 -s 3 -d 2 -p rtProtoOSPF -e 44 -c 995 -i 31 -a 995 -x {3.1 2.1 -1 ------- null}
r -t 0.13225333552271 -s 2 -d 3 -p rtProtoOSPF -e 44 -c 995 -i 28 -a 995 -x {2.1 3.1 -1 ------- null}
v -t 0.13225333552271 -e sim_annotation 0.13225333552271 62 Agente OSPF 3.Reciviendo un ACK de 2 msgid 3
- -t 0.13225333552271 -s 3 -d 2 -p rtProtoOSPF -e 44 -c 995 -i 31 -a 995 -x {3.1 2.1 -1 ------- null}
h -t 0.13225333552271 -s 3 -d 2 -p rtProtoOSPF -e 44 -c 995 -i 31 -a 995 -x {3.1 2.1 -1 ------- null}
r -t 0.14225333552271 -s 3 -d 2 -p rtProtoOSPF -e 44 -c 995 -i 30 -a 995 -x {3.1 2.1 -1 ------- null}
v -t 0.14225333552271 -e sim_annotation 0.14225333552271 63 Agente OSPF 2.Reciviendo un ACK de 3 msgid 5
r -t 0.142488002189377 -s 3 -d 2 -p rtProtoOSPF -e 44 -c 995 -i 31 -a 995 -x {3.1 2.1 -1 ------- null}
v -t 0.142488002189377 -e sim_annotation 0.142488002189377 64 Agente OSPF 2.Reciviendo un ACK de 3 msgid 6
v -t 0.22058669092161 -e sim_annotation 0.22058669092161 65 Agente OSPF 4.Enviando un HELLO a 3 msgid 4
+ -t 0.22058669092161 -s 4 -d 3 -p rtProtoOSPF -e 124 -c 991 -i 32 -a 991 -x {4.2 3.1 -1 ------- null}
- -t 0.22058669092161 -s 4 -d 3 -p rtProtoOSPF -e 124 -c 991 -i 32 -a 991 -x {4.2 3.1 -1 ------- null}
h -t 0.22058669092161 -s 4 -d 3 -p rtProtoOSPF -e 124 -c 991 -i 32 -a 991 -x {4.2 3.1 -1 ------- null}
v -t 0.22058669092161 -e sim_annotation 0.22058669092161 66 Agente OSPF 4.Enviando un HELLO a 5 msgid 4
+ -t 0.22058669092161 -s 4 -d 5 -p rtProtoOSPF -e 124 -c 991 -i 33 -a 991 -x {4.2 5.1 -1 ------- null}
- -t 0.22058669092161 -s 4 -d 5 -p rtProtoOSPF -e 124 -c 991 -i 33 -a 991 -x {4.2 5.1 -1 ------- null}
h -t 0.22058669092161 -s 4 -d 5 -p rtProtoOSPF -e 124 -c 991 -i 33 -a 991 -x {4.2 5.1 -1 ------- null}
r -t 0.231248024254943 -s 4 -d 3 -p rtProtoOSPF -e 124 -c 991 -i 32 -a 991 -x {4.2 3.1 -1 ------- null}
v -t 0.231248024254943 -e sim_annotation 0.231248024254943 67 Agente OSPF 3.Reciviendo un HELLO de 4 msgid 4
v -t 0.231248024254943 -e sim_annotation 0.231248024254943 68 Agente OSPF 3.Enviando un DD a 4 msgid 11
+ -t 0.231248024254943 -s 3 -d 4 -p rtProtoOSPF -e 224 -c 992 -i 34 -a 992 -x {3.1 4.2 -1 ------- null}
- -t 0.231248024254943 -s 3 -d 4 -p rtProtoOSPF -e 224 -c 992 -i 34 -a 992 -x {3.1 4.2 -1 ------- null}
h -t 0.231248024254943 -s 3 -d 4 -p rtProtoOSPF -e 224 -c 992 -i 34 -a 992 -x {3.1 4.2 -1 ------- null}
r -t 0.231248024254943 -s 4 -d 5 -p rtProtoOSPF -e 124 -c 991 -i 33 -a 991 -x {4.2 5.1 -1 ------- null}
v -t 0.231248024254943 -e sim_annotation 0.231248024254943 69 Agente OSPF 5.Reciviendo un HELLO de 4 msgid 4
r -t 0.24244269092161 -s 3 -d 4 -p rtProtoOSPF -e 224 -c 992 -i 34 -a 992 -x {3.1 4.2 -1 ------- null}
v -t 0.24244269092161 -e sim_annotation 0.24244269092161 70 Agente OSPF 4.Reciviendo un DD de 3 msgid 11
v -t 0.24244269092161 -e sim_annotation 0.24244269092161 71 Agente OSPF 4.Enviando un DD a 3 msgid 12
+ -t 0.24244269092161 -s 4 -d 3 -p rtProtoOSPF -e 224 -c 992 -i 35 -a 992 -x {4.2 3.1 -1 ------- null}
- -t 0.24244269092161 -s 4 -d 3 -p rtProtoOSPF -e 224 -c 992 -i 35 -a 992 -x {4.2 3.1 -1 ------- null}
h -t 0.24244269092161 -s 4 -d 3 -p rtProtoOSPF -e 224 -c 992 -i 35 -a 992 -x {4.2 3.1 -1 ------- null}
r -t 0.253637357588276 -s 4 -d 3 -p rtProtoOSPF -e 224 -c 992 -i 35 -a 992 -x {4.2 3.1 -1 ------- null}
v -t 0.253637357588276 -e sim_annotation 0.253637357588276 72 Agente OSPF 3.Reciviendo un DD de 4 msgid 12
v -t 0.253637357588276 -e sim_annotation 0.253637357588276 73 Agente OSPF 3.Enviando un DD a 4 msgid 13
+ -t 0.253637357588276 -s 3 -d 4 -p rtProtoOSPF -e 224 -c 992 -i 36 -a 992 -x {3.1 4.2 -1 ------- null}
- -t 0.253637357588276 -s 3 -d 4 -p rtProtoOSPF -e 224 -c 992 -i 36 -a 992 -x {3.1 4.2 -1 ------- null}
h -t 0.253637357588276 -s 3 -d 4 -p rtProtoOSPF -e 224 -c 992 -i 36 -a 992 -x {3.1 4.2 -1 ------- null}
r -t 0.264832024254943 -s 3 -d 4 -p rtProtoOSPF -e 224 -c 992 -i 36 -a 992 -x {3.1 4.2 -1 ------- null}
v -t 0.264832024254943 -e sim_annotation 0.264832024254943 74 Agente OSPF 4.Reciviendo un DD de 3 msgid 13
v -t 0.264832024254943 -e sim_annotation 0.264832024254943 75 Agente OSPF 4.Enviando un DD a 3 msgid 14
+ -t 0.264832024254943 -s 4 -d 3 -p rtProtoOSPF -e 224 -c 992 -i 37 -a 992 -x {4.2 3.1 -1 ------- null}
- -t 0.264832024254943 -s 4 -d 3 -p rtProtoOSPF -e 224 -c 992 -i 37 -a 992 -x {4.2 3.1 -1 ------- null}
h -t 0.264832024254943 -s 4 -d 3 -p rtProtoOSPF -e 224 -c 992 -i 37 -a 992 -x {4.2 3.1 -1 ------- null}
r -t 0.27602669092161 -s 4 -d 3 -p rtProtoOSPF -e 224 -c 992 -i 37 -a 992 -x {4.2 3.1 -1 ------- null}
v -t 0.27602669092161 -e sim_annotation 0.27602669092161 76 Agente OSPF 3.Reciviendo un DD de 4 msgid 14
v -t 0.27602669092161 -e sim_annotation 0.27602669092161 77 Agente OSPF 3.Enviando un DD a 4 msgid 15
+ -t 0.27602669092161 -s 3 -d 4 -p rtProtoOSPF -e 224 -c 992 -i 38 -a 992 -x {3.1 4.2 -1 ------- null}
- -t 0.27602669092161 -s 3 -d 4 -p rtProtoOSPF -e 224 -c 992 -i 38 -a 992 -x {3.1 4.2 -1 ------- null}
h -t 0.27602669092161 -s 3 -d 4 -p rtProtoOSPF -e 224 -c 992 -i 38 -a 992 -x {3.1 4.2 -1 ------- null}
v -t 0.27602669092161 -e sim_annotation 0.27602669092161 78 Agente OSPF 3.Enviando un REQUEST a 4 msgid 5
+ -t 0.27602669092161 -s 3 -d 4 -p rtProtoOSPF -e 124 -c 994 -i 39 -a 994 -x {3.1 4.2 -1 ------- null}
- -t 0.277221357588276 -s 3 -d 4 -p rtProtoOSPF -e 124 -c 994 -i 39 -a 994 -x {3.1 4.2 -1 ------- null}
h -t 0.277221357588276 -s 3 -d 4 -p rtProtoOSPF -e 124 -c 994 -i 39 -a 994 -x {3.1 4.2 -1 ------- null}
v -t 0.277940357931862 -e sim_annotation 0.277940357931862 79 Agente OSPF 1.Enviando un HELLO a 2 msgid 5
+ -t 0.277940357931862 -s 1 -d 2 -p rtProtoOSPF -e 124 -c 991 -i 40 -a 991 -x {1.1 2.1 -1 ------- null}
- -t 0.277940357931862 -s 1 -d 2 -p rtProtoOSPF -e 124 -c 991 -i 40 -a 991 -x {1.1 2.1 -1 ------- null}
h -t 0.277940357931862 -s 1 -d 2 -p rtProtoOSPF -e 124 -c 991 -i 40 -a 991 -x {1.1 2.1 -1 ------- null}
r -t 0.280436357931862 -s 1 -d 2 -p rtProtoOSPF -e 124 -c 991 -i 40 -a 991 -x {1.1 2.1 -1 ------- null}
v -t 0.280436357931862 -e sim_annotation 0.280436357931862 80 Agente OSPF 2.Reciviendo un HELLO de 1 msgid 5
v -t 0.280436357931862 -e sim_annotation 0.280436357931862 81 Agente OSPF 2.Enviando un DD a 1 msgid 16
+ -t 0.280436357931862 -s 2 -d 1 -p rtProtoOSPF -e 224 -c 992 -i 41 -a 992 -x {2.1 1.1 -1 ------- null}
- -t 0.280436357931862 -s 2 -d 1 -p rtProtoOSPF -e 224 -c 992 -i 41 -a 992 -x {2.1 1.1 -1 ------- null}
h -t 0.280436357931862 -s 2 -d 1 -p rtProtoOSPF -e 224 -c 992 -i 41 -a 992 -x {2.1 1.1 -1 ------- null}
r -t 0.283332357931862 -s 2 -d 1 -p rtProtoOSPF -e 224 -c 992 -i 41 -a 992 -x {2.1 1.1 -1 ------- null}
v -t 0.283332357931862 -e sim_annotation 0.283332357931862 82 Agente OSPF 1.Reciviendo un DD de 2 msgid 16
v -t 0.283332357931862 -e sim_annotation 0.283332357931862 83 Agente OSPF 1.Enviando un DD a 2 msgid 17
+ -t 0.283332357931862 -s 1 -d 2 -p rtProtoOSPF -e 224 -c 992 -i 42 -a 992 -x {1.1 2.1 -1 ------- null}
- -t 0.283332357931862 -s 1 -d 2 -p rtProtoOSPF -e 224 -c 992 -i 42 -a 992 -x {1.1 2.1 -1 ------- null}
h -t 0.283332357931862 -s 1 -d 2 -p rtProtoOSPF -e 224 -c 992 -i 42 -a 992 -x {1.1 2.1 -1 ------- null}
v -t 0.283332357931862 -e sim_annotation 0.283332357931862 84 Agente OSPF 1.Enviando un DD a 2 msgid 18
+ -t 0.283332357931862 -s 1 -d 2 -p rtProtoOSPF -e 224 -c 992 -i 43 -a 992 -x {1.1 2.1 -1 ------- null}
- -t 0.284228357931862 -s 1 -d 2 -p rtProtoOSPF -e 224 -c 992 -i 43 -a 992 -x {1.1 2.1 -1 ------- null}
h -t 0.284228357931862 -s 1 -d 2 -p rtProtoOSPF -e 224 -c 992 -i 43 -a 992 -x {1.1 2.1 -1 ------- null}
r -t 0.286228357931862 -s 1 -d 2 -p rtProtoOSPF -e 224 -c 992 -i 42 -a 992 -x {1.1 2.1 -1 ------- null}
v -t 0.286228357931862 -e sim_annotation 0.286228357931862 85 Agente OSPF 2.Reciviendo un DD de 1 msgid 17
r -t 0.287124357931862 -s 1 -d 2 -p rtProtoOSPF -e 224 -c 992 -i 43 -a 992 -x {1.1 2.1 -1 ------- null}
v -t 0.287124357931862 -e sim_annotation 0.287124357931862 86 Agente OSPF 2.Reciviendo un DD de 1 msgid 18
v -t 0.287124357931862 -e sim_annotation 0.287124357931862 87 Agente OSPF 2.Enviando un DD a 1 msgid 19
+ -t 0.287124357931862 -s 2 -d 1 -p rtProtoOSPF -e 224 -c 992 -i 44 -a 992 -x {2.1 1.1 -1 ------- null}
- -t 0.287124357931862 -s 2 -d 1 -p rtProtoOSPF -e 224 -c 992 -i 44 -a 992 -x {2.1 1.1 -1 ------- null}
h -t 0.287124357931862 -s 2 -d 1 -p rtProtoOSPF -e 224 -c 992 -i 44 -a 992 -x {2.1 1.1 -1 ------- null}
r -t 0.287221357588276 -s 3 -d 4 -p rtProtoOSPF -e 224 -c 992 -i 38 -a 992 -x {3.1 4.2 -1 ------- null}
v -t 0.287221357588276 -e sim_annotation 0.287221357588276 88 Agente OSPF 4.Reciviendo un DD de 3 msgid 15
v -t 0.287221357588276 -e sim_annotation 0.287221357588276 89 Agente OSPF 4.Enviando un REQUEST a 3 msgid 6
+ -t 0.287221357588276 -s 4 -d 3 -p rtProtoOSPF -e 124 -c 994 -i 45 -a 994 -x {4.2 3.1 -1 ------- null}
- -t 0.287221357588276 -s 4 -d 3 -p rtProtoOSPF -e 124 -c 994 -i 45 -a 994 -x {4.2 3.1 -1 ------- null}
h -t 0.287221357588276 -s 4 -d 3 -p rtProtoOSPF -e 124 -c 994 -i 45 -a 994 -x {4.2 3.1 -1 ------- null}
r -t 0.28788269092161 -s 3 -d 4 -p rtProtoOSPF -e 124 -c 994 -i 39 -a 994 -x {3.1 4.2 -1 ------- null}
v -t 0.28788269092161 -e sim_annotation 0.28788269092161 90 Agente OSPF 4.Reciviendo un REQUEST de 3 msgid 5